995|649|Public
5|$|If the <b>reaction</b> <b>path</b> {{proceeds}} {{over one}} or several intermediates, kcat {{will be a}} function of several elementary rate constants, whereas in the simplest case of a single elementary reaction (e.g. no intermediates) it will be identical to the elementary unimolecular rate constant k2. The apparent unimolecular rate constant kcat is also called turnover number and denotes the maximum number of enzymatic reactions catalysed per second.|$|E
25|$|Recent {{improvements}} {{in the power of}} personal computers and modeling software have made geochemical models more accessible and more flexible in their implementation. Geochemists are now able to construct on their laptops complex <b>reaction</b> <b>path</b> or reactive transport models which previously would have required a supercomputer.|$|E
25|$|The {{simplest}} chain-of-state {{method is}} the linear synchronous transit (LST) method. It operates by taking interpolated points between the reactant and product geometries and choosing {{the one with}} the highest energy for subsequent refinement via a local search. The quadratic synchronous transit (QST) method extends LST by allowing a parabolic <b>reaction</b> <b>path,</b> with optimization of the highest energy point orthogonally to the parabola.|$|E
5000|$|Study of <b>reaction</b> <b>paths</b> and of {{dissociation}} {{mechanisms of}} electronically excited molecular ions.|$|R
40|$|Collective <b>reaction</b> <b>paths</b> for fusion <b>reactions</b> 16 O+α→ 20 Ne and 16 O+ 16 O→ 32 S are microscopically {{determined}} on {{the basis}} of the adiabatic self-consistent collective coordinate (ASCC) method. The collective path is maximally decoupled from other intrinsic degrees of freedom. The <b>reaction</b> <b>paths</b> turn out to deviate from those obtained with standard mean-field calculations with constraints on quadrupole and octupole moments. The potentials and inertial masses defined in the ASCC method are calculated along the <b>reaction</b> <b>paths,</b> which leads to the collective Hamiltonian used for calculation of the subbarrier fusion cross sections. The inertial mass inside the Coulomb barrier may have a significant influence on the fusion cross section at the deep subbarrier energy...|$|R
40|$|The PyFrag program (released as PyFrag 2007. 01) is a "wrap-around" for the Amsterdam Density Functional (ADF) {{package and}} {{facilitates}} {{the extension of}} the fragment analysis method implemented in ADF along an entire potential energy surface. The purpose is to make analyses of <b>reaction</b> <b>paths</b> and other (in principle also multidimensional) potential energy surfaces more transparent and user-friendly. PyFrag also automates the analysis of <b>reaction</b> <b>paths</b> in terms of the extended activation strain model of chemical reactivity. © 2007 Wiley Periodicals, Inc...|$|R
25|$|Helgeson (1968) {{introduced}} the first computer program to solve equilibrium and <b>reaction</b> <b>path</b> models, {{which he and}} coworkers used to model geological processes like weathering, sediment diagenesis, evaporation, hydrothermal alteration, and ore deposition. Later developments in geochemical modeling included reformulating the governing equations, first as ordinary differential equations, then later as algebraic equations. Additionally, chemical components came to be represented in models by aqueous species, minerals, and gases, {{rather than by the}} elements and electrons which make up the species, simplifying the governing equations and their numerical solution.|$|E
25|$|Geochemical modelers {{commonly}} create <b>reaction</b> <b>path</b> {{models to}} understand how systems respond to changes in composition, temperature, or pressure. By configuring {{the manner in which}} mass and heat transfer are specified (i.e., open or closed systems), models can be used to represent a variety of geochemical processes. Reaction paths can assume chemical equilibrium, or they can incorporate kinetic rate laws to calculate the timing of reactions. In order to predict the distribution in space and time of the chemical reactions that occur along a flowpath, geochemical models are increasingly being coupled with hydrologic models of mass and heat transport to form reactive transport models. Specialized geochemical modeling programs that are designed as cross-linkable re-entrant software objects enable construction of reactive transport models of any flow configuration.|$|E
2500|$|... where [...] is the {{identity}} matrix and [...] is {{a unit vector}} representing the <b>reaction</b> <b>path</b> tangent at [...] By projecting out components of the energy gradient [...] or the optimization step that are parallel to the <b>reaction</b> <b>path,</b> an optimization algorithm significantly reduces the tendency {{of each of the}} beads to be optimized directly to a minimum.|$|E
40|$|State {{of the art}} {{computational}} quantum-chemical methods {{enable the}} modelling of catalytically active sites with an accuracy of relevance to chemical predictability. This opens the possibility to predict <b>reaction</b> <b>paths</b> of elementary <b>reaction</b> steps on catalytically active surfaces. The results of such an approach are illustrated for a few dissociation and association reactions as they occur on transition metal surfaces. Examples to be given concern CO dissociation. carbon-carbon coupling and NH 3 oxidation. <b>Reaction</b> <b>paths</b> appear {{to be controlled by}} the principle of minimum surface atom sharin...|$|R
40|$|Abstract [...] Commercial {{spreadsheet}} programs allow {{calculation of}} reasonable r action paths for weathering of silicate minerals in a dilute acidic aqueous olution. These calculations use reaction coefficients of simplified weathering reactions and ignore speciation in the aqueous olution. The method is illustrated using {{the example of}} dissolution of microcline. When plotted on a log-log activity diagram, the obtained <b>reaction</b> <b>paths</b> are clearly curved, unlike the straight lines shown in most recent geochemistry textbooks. The calculated <b>reaction</b> <b>paths</b> are strongly dependent on the initial pH of the solution. At higher pH the speciation in the solution must {{be included in the}} calculations. The most important speciation reactions (the dissociation of H 20 and H 4 SiO 4) can be easily included using commercial mathematical programs. The presented examples include closed systems with different initial pH values and an open system case describing the evolution of a soil profile. All <b>reaction</b> <b>paths</b> calculated using the simplified methods agree well with those obtained using sophisticated modeling codes...|$|R
40|$|A {{comparative}} study based on potential energy surfaces (PES) of 2 -butanedioic and hypothetic 2 -butanedioic/HCl acids {{is useful for}} understanding the maleic acid isomerization. The PES enables locating conformers of minimum energy, intermediates of reactions and transition states. From contour diagrams, a set of possible <b>reaction</b> <b>paths</b> are depicted interconnecting the proposed structures. The study {{was carried out in}} absentia and {{in the presence of the}} catalyst (HCl), using an solvatation model provided by the Gaussian software package. Clearly, the effect of HCl is given by new <b>reaction</b> <b>paths</b> with lower energetic barriers in relation to the reaction without catalyzing...|$|R
2500|$|... is {{the spring}} force {{parallel}} to the pathway at each point [...] (k is a spring constant and , as before, is a unit vector representing the <b>reaction</b> <b>path</b> tangent at [...] ).|$|E
2500|$|Often this {{constraint}} {{is achieved}} by projecting out components of the force on each bead , or alternatively the movement of each bead during optimization, that are tangential to the <b>reaction</b> <b>path.</b> For example, if for convenience, it is defined that , then the energy gradient at each bead minus the component of the energy gradient that is tangential to the reaction pathway is given by ...|$|E
2500|$|Garrels and Thompson (1962) first applied {{chemical}} modeling to geochemistry in 25°C and one atmosphere total pressure. [...] Their calculation, computed by hand, is {{now known}} as an equilibrium model, which predicts species distributions, mineral saturation states, and gas fugacities from measurements of bulk solution composition. By removing small aliquots of solvent water from an equilibrated spring water and repeatedly recalculating the species distribution, Garrels and Mackenzie (1967) simulated the reactions that occur as spring water evaporated. This coupling of mass transfer with an equilibrium model, known as a <b>reaction</b> <b>path</b> model, enabled geochemists to simulate reaction processes.|$|E
40|$|We {{propose a}} Monte Carlo method {{to study the}} <b>reaction</b> <b>paths</b> in {{nucleosynthesis}} during stellar evolution. Determination of <b>reaction</b> <b>paths</b> is important to obtain the physical picture of stellar evolution. The combination of network calculation and our method gives us {{a better understanding of}} physical picture. We apply our method to the case of the helium shell flash model in the extremely metal poor star. © 2006 American Institute of Physics. SCOPUS: cp. pInternational Symposium on Origin of Matter and Evolution of Galaxies 2005 : New Horizon of Nuclear Astrophysics and Cosmology; Tokyo; Japan; 8 November 2005 through 11 November 2005. info:eu-repo/semantics/publishe...|$|R
40|$|<b>Reaction</b> <b>paths</b> and {{classical}} and quantum trajectories are studied within a generalized Hamilton-Jacobi framework, which allows {{to put on}} equal footing topology and dynamics in chemical reactivity problems. In doing so, we show how high-dimensional problems could {{be dealt with by}} means of Caratheodory plots or how trajectory-based quantum-classical analyses reveal unexpected discrepancies. As a working model, we consider the reaction dynamics associated with a Mueller-Brown potential energy surface, where we focus on the relationship between <b>reaction</b> <b>paths</b> and trajectories as well as on reaction probability calculations from classical and quantum trajectories. Comment: 22 pages, 5 figures, 1 tabl...|$|R
40|$|Chemical {{reactions}} occuring at metal - {{silicon carbide}} interfaces {{have been investigated}} for different metals (Fe, Ni, Cr) and their alloys. <b>Reaction</b> <b>paths,</b> <b>reaction</b> kinetics, macroscopic morphology and microstructure of the product scale have been determined. A model has been developed to explain the influence of each metal component on the composition {{and structure of the}} product scale...|$|R
5000|$|... #Caption: General <b>{{reaction}}</b> <b>path</b> of a Turbo-Hauser base reaction ...|$|E
5000|$|<b>Reaction</b> <b>Path</b> (IRC) {{following}} {{using either}} Z-matrix, Cartesian or mass-weighted Cartesian coordinates.|$|E
5000|$|... where [...] is the {{identity}} matrix and [...] is {{a unit vector}} representing the <b>reaction</b> <b>path</b> tangent at [...] By projecting out components of the energy gradient or the optimization step that are parallel to the <b>reaction</b> <b>path,</b> an optimization algorithm significantly reduces the tendency {{of each of the}} beads to be optimized directly to a minimum.|$|E
40|$|Indexación: Web of Science; ScieloA {{comparative}} study based on potential energy surfaces (PES) of 2 -butanedioic and hypothetic 2 -butanedioic/HCl acids {{is useful for}} understanding the maleic acid isomerization. The PES enables locating conformers of minimum energy, intermediates of reactions and transition states. From contour diagrams, a set of possible <b>reaction</b> <b>paths</b> are depicted interconnecting the proposed structures. The study {{was carried out in}} absentia and {{in the presence of the}} catalyst (HCl), using an solvatation model provided by the Gaussian software package. Clearly, the effect of HCl is given by new <b>reaction</b> <b>paths</b> with lower energetic barriers in relation to the reaction without catalyzing. [URL]...|$|R
40|$|A novel {{mechanism}} for the appearance of oriented processes is investigated with a flexible dynamical system overcoming barriers. Under non-equilibrium condition with external driving, <b>reaction</b> <b>paths</b> deviate from that at equilibrium with an accompanying violation of symmetry between the forward and the reverse paths. Although we never introduce any external switching of potentials to generate the oriented processes, multi-dimensional flexible dynamics promote the oriented processes through this symmetry violation. Along the <b>reaction</b> <b>paths,</b> bottleneck points are proposed as a rate-controlling factor, which determine the direction-dependent activation energies satisfying Arrhenius-like law for the rate constants. In comparison, in stiff systems, the oriented process is suggested to appear in different manner from this scenario. Comment: 6 pages, 6 figure...|$|R
40|$|International audienceThe {{diffusion}} profiles and the <b>reaction</b> <b>paths</b> in ternary solid {{solutions are}} determined by both thermodynamics and kinetics. The matrix of the diffusion coefficient {{can be described as}} the product of the Hessian matrix for the thermodynamic influences and the Onsager matrix for kinetic influences...|$|R
50|$|Geochemical models, on {{the other}} hand, have been {{developed}} to provide thermodynamic descriptions of multicomponent systems without regards to transport. <b>Reaction</b> <b>path</b> models were created, for instance, to describe the sequence of chemical reactions resulting from chemical weathering or hydrothermal alteration in batch systems, in terms of the overall reaction progress. By adopting the reference frame of a packet of fluid and treating reaction progress as travel time (or distance along a flowpath), however, a batch <b>reaction</b> <b>path</b> model could be thought of as describing advective transport through an aquifer.|$|E
50|$|A look at {{the whole}} <b>reaction</b> <b>path</b> {{indicates}} that the rate-determining step in this process is the nucleophilic addition. After this point, the catalytic event should proceed without particular obstacles.|$|E
5000|$|Charged nucleophiles (hydride, methoxide, hydroxide) react reversible, leading to, {{independent}} of the nucleofile at hand, identical 2,4-substituted tricyclo3,1,0,03,6hexane derivatis, e.g.: with methoxide: 2,4-dimethoxy-tricyclo3,1,0,03,6hexane is formed (see figure 6 middle <b>reaction</b> <b>path).</b>|$|E
30|$|In {{order to}} {{accurately}} describe the catalytic cracking reactions and predict the yield of each product along {{the height of}} the FCC riser reactor, it is necessary to give expressions of reaction rate for all <b>reaction</b> <b>paths</b> presented in the six-lump kinetic model in eight ideal reactors (i.e. six CSTRs and two PFRs). However, it is not easy work to directly apply the standard data interface in Aspen Plus to describe the reaction rates for these <b>reaction</b> <b>paths.</b> Therefore, an external FORTRAN subroutine is required to link all of the applied reactor modules in Aspen Plus for simulating FCC process. This means eight FORTRAN subroutines in total should be developed in this study for the employed eight ideal reactor modules to exchange data information with the main simulation program of Aspen Plus.|$|R
40|$|Glycosylation {{pattern is}} an {{important}} quality attribute of protein therapeutics. It affects protein stability, half-life and even biological functions. The N-glycosylation pathway is a highly branched network. Although only a relative small number of enzymes involved in the pathway, a multitude of glycan intermediates can be produced. In order to study this network, GlycoVis was created to visualize the distribution of glycans and potential <b>reaction</b> <b>paths</b> leading to each glycan in the N-glycosylation network. The program was written in Matlab, interfacing with Graphviz. It incorporates substrate specificity of the enzymes involved in the pathway in a relationship matrix. Given an input of glycan distribution data, the program traces all the potential <b>reaction</b> <b>paths</b> leading to each glycan, and outputs pathway maps with glycans colored in line with their relative abundances...|$|R
40|$|The {{creation}} of new <b>reaction</b> <b>paths</b> to accomplish a certain chemical goal has received increasing attention in the recent past. The present series attempts to establish an analytic framework that systematizes {{the search for the}} production of a certain chemical product, knowing that there is a wide number of chemicals which could be either raw materials or by-products of the eventual chemical reaction. In this paper some invariant algebraic properties of the chemical reactions in the space of ΔG (free energy change), T (temperature) are developed. Furthermore, based on these properties, a search strategy is proposed for the creation and screening of alternative <b>reaction</b> <b>paths,</b> leading to a desired chemical product. The above analysis has been concerned with single-step and multiple-step reactions including open and closed sequences of reactions (clusters of reactions). © 1982...|$|R
5000|$|... is {{the spring}} force {{parallel}} to the pathway at each point [...] (k is a spring constant and , as before, is a unit vector representing the <b>reaction</b> <b>path</b> tangent at [...] ).|$|E
5000|$|... #Caption: Random-order ternary-complex {{mechanism}} for an enzyme reaction. The <b>reaction</b> <b>path</b> is shown as {{a line and}} enzyme intermediates containing substrates A and B or products P and Q are written below the line.|$|E
5000|$|For outer sphere redox {{reactions}} there {{cannot be}} such a <b>reaction</b> <b>path,</b> but nevertheless one does observe an activation energy. The rate equation for activation-controlled reactions has the same exponential form as the Eyring equation, ...|$|E
40|$|Gold-catalyzed cycloisomerization of 1, 5 -enynes {{has been}} {{investigated}} {{with the aid of}} density functional theory calculations at the B 3 LYP level of theory. We have examined how substituents influence the <b>reaction</b> <b>paths</b> in the cycloisomerization of 1, 5 -enynes catalyzed by both AuCl and [AuL](+) (L = phosphine) ...|$|R
40|$|On most electrocatalysts H 2 O 2 is an {{intermediate}} in the electroreduction ofoxygen. H 2 O 2 can decompose either chemically or electrochemically and inassessing {{the performance of}} the electrocatalyst it is crucial to distinguish betweenthese <b>reaction</b> <b>paths.</b> A simple method is proposed to determine whetheror not the chemical path is followed...|$|R
40|$|International audienceA {{mathematical}} analysis of several algorithms, for {{the integration of}} the differential equation associated to the Intrinsic <b>Reaction</b> Coordinate <b>path,</b> is performed. This analysis starts showing that the Intrinsic <b>Reaction</b> Coordinate <b>path</b> can be derived from a variational problem, so that it has the properties of an extremal curve. Then, one may borrow the mathematical methods for the integration of extremal curves, to formulate new algorithms for {{the integration of the}} Intrinsic <b>Reaction</b> Coordinate <b>path.</b> One may use as well this theoretical framework, to recast recently formulated algorithms based on direct minimization of an arbitrary curve, such as the Nudged Elastic Band Method or String Method. In this view a new algorithm is proposed. Finally, the theory of broken extremals is used to analyze an Intrinsic <b>Reaction</b> Coordinate <b>path</b> possessing a valley ridge inflection point...|$|R
